   0.34348E+01   0.42317E-02   0.42317E-02
   0.68696E+01   0.39980E-02   0.39980E-02
   0.10304E+02   0.40757E-02   0.40757E-02
   0.13739E+02   0.38879E-02   0.38879E-02
   0.17174E+02   0.46478E-02   0.46478E-02
   0.20609E+02   0.43592E-02   0.43592E-02
   0.24044E+02   0.43844E-02   0.43844E-02
   0.27479E+02   0.48966E-02   0.48966E-02
   0.30913E+02   0.51162E-02   0.51162E-02
   0.34348E+02   0.54436E-02   0.54436E-02
   0.37783E+02   0.54938E-02   0.54938E-02
   0.41218E+02   0.55603E-02   0.55603E-02
   0.44653E+02   0.58658E-02   0.58658E-02
   0.48087E+02   0.58433E-02   0.58433E-02
   0.51522E+02   0.62337E-02   0.62337E-02
   0.54957E+02   0.65021E-02   0.65021E-02
   0.58392E+02   0.65200E-02   0.65200E-02
   0.61827E+02   0.72582E-02   0.72582E-02
   0.65261E+02   0.72493E-02   0.72493E-02
   0.68696E+02   0.76301E-02   0.76301E-02
   0.72131E+02   0.85366E-02   0.85366E-02
   0.75566E+02   0.87293E-02   0.87293E-02
   0.79001E+02   0.93854E-02   0.93854E-02
   0.82436E+02   0.11056E-01   0.11056E-01
   0.85870E+02   0.12813E-01   0.12813E-01
   0.89305E+02   0.17986E-01   0.17986E-01
   0.92740E+02   0.84397E-02   0.84397E-02
   0.96175E+02   0.63288E-02   0.63288E-02
   0.99610E+02   0.51096E-02   0.51096E-02
   0.10304E+03   0.53537E-02   0.53537E-02
   0.10648E+03   0.72956E-02   0.72956E-02
   0.10991E+03   0.81656E-02   0.81656E-02
   0.11335E+03   0.11191E-01   0.11191E-01
   0.11678E+03   0.15083E-01   0.15083E-01
   0.12022E+03   0.20258E-01   0.20258E-01
   0.12365E+03   0.17583E-01   0.17583E-01
   0.12709E+03   0.16037E-01   0.16037E-01
   0.13052E+03   0.15069E-01   0.15069E-01
   0.13396E+03   0.13641E-01   0.13641E-01
   0.13739E+03   0.13148E-01   0.13148E-01
   0.14083E+03   0.13467E-01   0.13467E-01
   0.14426E+03   0.12879E-01   0.12879E-01
   0.14770E+03   0.13745E-01   0.13745E-01
   0.15113E+03   0.12834E-01   0.12834E-01
   0.15457E+03   0.12905E-01   0.12905E-01
   0.15800E+03   0.13674E-01   0.13674E-01
   0.16144E+03   0.14307E-01   0.14307E-01
   0.16487E+03   0.13966E-01   0.13966E-01
   0.16831E+03   0.15743E-01   0.15743E-01
   0.17174E+03   0.49515E-02   0.49515E-02
   0.17518E+03   0.45642E-02   0.45642E-02
   0.17861E+03   0.44337E-02   0.44337E-02
   0.18205E+03   0.46949E-02   0.46949E-02
   0.18548E+03   0.47032E-02   0.47032E-02
   0.18891E+03   0.44549E-02   0.44549E-02
   0.19235E+03   0.31362E-02   0.31362E-02
   0.19578E+03   0.33587E-02   0.33587E-02
   0.19922E+03   0.36059E-02   0.36059E-02
   0.20265E+03   0.38123E-02   0.38123E-02
   0.20609E+03   0.40521E-02   0.40521E-02
   0.20952E+03   0.42940E-02   0.42940E-02
   0.21296E+03   0.44994E-02   0.44994E-02
   0.21639E+03   0.47094E-02   0.47094E-02
   0.21983E+03   0.49782E-02   0.49782E-02
   0.22326E+03   0.55452E-02   0.55452E-02
   0.22670E+03   0.59156E-02   0.59156E-02
   0.23013E+03   0.66931E-02   0.66931E-02
   0.23357E+03   0.87560E-02   0.87560E-02
   0.23700E+03   0.57455E-02   0.57455E-02
   0.24044E+03   0.59063E-02   0.59063E-02
   0.24387E+03   0.59266E-02   0.59266E-02
   0.24731E+03   0.59849E-02   0.59849E-02
   0.25074E+03   0.60154E-02   0.60154E-02
   0.25418E+03   0.67424E-02   0.67424E-02
   0.25761E+03   0.60537E-02   0.60537E-02
   0.26105E+03   0.14682E-01   0.14682E-01
   0.26448E+03   0.16397E-01   0.16397E-01
   0.26792E+03   0.18997E-01   0.18997E-01
   0.27135E+03   0.29231E-01   0.29231E-01
   0.27479E+03   0.24264E-01   0.24264E-01
   0.27822E+03   0.20368E-01   0.20368E-01
   0.28165E+03   0.15478E-01   0.15478E-01
   0.28509E+03   0.16288E-01   0.16288E-01
   0.28852E+03   0.14408E-01   0.14408E-01
   0.29196E+03   0.13320E-01   0.13320E-01
   0.29539E+03   0.12597E-01   0.12597E-01
   0.29883E+03   0.13816E-01   0.13816E-01
   0.30226E+03   0.15259E-01   0.15259E-01
   0.30570E+03   0.12102E-01   0.12102E-01
   0.30913E+03   0.15708E-01   0.15708E-01
   0.31257E+03   0.65961E-05   0.65961E-05
   0.31600E+03   0.00000E+00   0.00000E+00
   0.31944E+03   0.00000E+00   0.00000E+00
   0.32287E+03   0.00000E+00   0.00000E+00
   0.32631E+03   0.00000E+00   0.00000E+00
   0.32974E+03   0.00000E+00   0.00000E+00
   0.33318E+03   0.00000E+00   0.00000E+00
   0.33661E+03   0.00000E+00   0.00000E+00
   0.34005E+03   0.00000E+00   0.00000E+00
   0.34348E+03   0.00000E+00   0.00000E+00
