  734

    1
0.0000000000e+00 0.0000000000e+00 0.0000000000e+00
0.0000000000e+00 0.0000000000e+00 0.0000000000e+00
     1      1      1
 1  1  1     0.0000000000e+00
 1  1  2    -1.6351732030e+02
 1  1  3     0.0000000000e+00
 1  2  1    -1.6351732030e+02
 1  2  2     0.0000000000e+00
 1  2  3     0.0000000000e+00
 1  3  1     0.0000000000e+00
 1  3  2     0.0000000000e+00
 1  3  3     0.0000000000e+00
 2  1  1    -1.6351732030e+02
 2  1  2     0.0000000000e+00
 2  1  3     0.0000000000e+00
 2  2  1     0.0000000000e+00
 2  2  2     1.6351732030e+02
 2  2  3     0.0000000000e+00
 2  3  1     0.0000000000e+00
 2  3  2     0.0000000000e+00
 2  3  3     0.0000000000e+00
 3  1  1     0.0000000000e+00
 3  1  2     0.0000000000e+00
 3  1  3     0.0000000000e+00
 3  2  1     0.0000000000e+00
 3  2  2     0.0000000000e+00
 3  2  3     0.0000000000e+00
 3  3  1     0.0000000000e+00
 3  3  2     0.0000000000e+00
 3  3  3     0.0000000000e+00

    2
0.0000000000e+00 0.0000000000e+00 0.0000000000e+00
0.0000000000e+00 0.0000000000e+00 0.0000000000e+00
     1      1      2
 1  1  1     0.0000000000e+00
 1  1  2     7.8804044552e+00
 1  1  3     0.0000000000e+00
 1  2  1     6.0397274733e+00
 1  2  2     0.0000000000e+00
 1  2  3     0.0000000000e+00
 1  3  1     0.0000000000e+00
 1  3  2     0.0000000000e+00
 1  3  3     0.0000000000e+00
 2  1  1     6.0397274733e+00
 2  1  2     0.0000000000e+00
 2  1  3     0.0000000000e+00
 2  2  1     0.0000000000e+00
 2  2  2    -2.2247018472e+02
 2  2  3     0.0000000000e+00
 2  3  1     0.0000000000e+00
 2  3  2     0.0000000000e+00
 2  3  3     1.5790402714e+01
 3  1  1     0.0000000000e+00
 3  1  2     0.0000000000e+00
 3  1  3     0.0000000000e+00
 3  2  1     0.0000000000e+00
 3  2  2     0.0000000000e+00
 3  2  3     1.5790402714e+01
 3  3  1     0.0000000000e+00
 3  3  2     1.3999692916e+01
 3  3  3     0.0000000000e+00

    3
0.0000000000e+00 0.0000000000e+00 0.0000000000e+00
2.4395069423e+00 0.0000000000e+00 0.0000000000e+00
     1      1      1
 1  1  1    -1.0800562026e+01
 1  1  2    -6.3403372533e-02
 1  1  3     0.0000000000e+00
 1  2  1     2.4553418921e+00
 1  2  2     4.2626463389e+00
 1  2  3     0.0000000000e+00
 1  3  1     0.0000000000e+00
 1  3  2     0.0000000000e+00
 1  3  3     2.2438917269e+00
 2  1  1     2.4553418921e+00
 2  1  2     4.2626463389e+00
 2  1  3     0.0000000000e+00
 2  2  1     5.8924864922e-01
 2  2  2     1.2096949021e+00
 2  2  3     0.0000000000e+00
 2  3  1     0.0000000000e+00
 2  3  2     0.0000000000e+00
 2  3  3     8.2659602428e-01
 3  1  1     0.0000000000e+00
 3  1  2     0.0000000000e+00
 3  1  3     2.2438917269e+00
 3  2  1     0.0000000000e+00
 3  2  2     0.0000000000e+00
 3  2  3     8.2659602428e-01
 3  3  1    -4.6840408802e-01
 3  3  2     6.4791084097e-01
 3  3  3     0.0000000000e+00

    4
0.0000000000e+00 0.0000000000e+00 0.0000000000e+00
2.4395069423e+00 0.0000000000e+00 0.0000000000e+00
     1      1      2
 1  1  1    -7.2165988506e+00
 1  1  2    -4.8333797575e+00
 1  1  3     0.0000000000e+00
 1  2  1    -5.1878358368e+00
 1  2  2    -2.6101782630e+00
 1  2  3     0.0000000000e+00
 1  3  1     0.0000000000e+00
 1  3  2     0.0000000000e+00
 1  3  3     1.4729747618e-01
 2  1  1    -5.1878358368e+00
 2  1  2    -2.6101782630e+00
 2  1  3     0.0000000000e+00
 2  2  1    -1.9962423246e+00
 2  2  2    -4.8565657501e-01
 2  2  3     0.0000000000e+00
 2  3  1     0.0000000000e+00
 2  3  2     0.0000000000e+00
 2  3  3     8.5042237521e-02
 3  1  1     0.0000000000e+00
 3  1  2     0.0000000000e+00
 3  1  3     1.4729747618e-01
 3  2  1     0.0000000000e+00
 3  2  2     0.0000000000e+00
 3  2  3     8.5042237521e-02
 3  3  1    -2.4422574990e-01
 3  3  2    -1.4100380245e-01
 3  3  3     0.0000000000e+00

    5
0.0000000000e+00 0.0000000000e+00 0.0000000000e+00
-2.4395069423e+00 0.0000000000e+00 0.0000000000e+00
     1      1      1
 1  1  1     1.0800562026e+01
 1  1  2    -6.3403372533e-02
 1  1  3     0.0000000000e+00
 1  2  1     2.4553418921e+00
 1  2  2    -4.2626463389e+00
 1  2  3     0.0000000000e+00
 1  3  1     0.0000000000e+00
 1  3  2     0.0000000000e+00
 1  3  3    -2.2438917269e+00
 2  1  1     2.4553418921e+00
 2  1  2    -4.2626463389e+00
 2  1  3     0.0000000000e+00
 2  2  1    -5.8924864922e-01
 2  2  2     1.2096949021e+00
 2  2  3     0.0000000000e+00
 2  3  1     0.0000000000e+00
 2  3  2     0.0000000000e+00
 2  3  3     8.2659602428e-01
 3  1  1     0.0000000000e+00
 3  1  2     0.0000000000e+00
 3  1  3    -2.2438917269e+00
 3  2  1     0.0000000000e+00
 3  2  2     0.0000000000e+00
 3  2  3     8.2659602428e-01
 3  3  1     4.6840408802e-01
 3  3  2     6.4791084097e-01
 3  3  3     0.0000000000e+00

    6
0.0000000000e+00 0.0000000000e+00 0.0000000000e+00
-2.4395069423e+00 0.0000000000e+00 0.0000000000e+00
     1      1      2
 1  1  1     7.2165988506e+00
 1  1  2    -4.8333797575e+00
 1  1  3     0.0000000000e+00
 1  2  1    -5.1878358368e+00
 1  2  2     2.6101782630e+00
 1  2  3     0.0000000000e+00
 1  3  1     0.0000000000e+00
 1  3  2     0.0000000000e+00
 1  3  3    -1.4729747618e-01
 2  1  1    -5.1878358368e+00
 2  1  2     2.6101782630e+00
 2  1  3     0.0000000000e+00
 2  2  1     1.9962423246e+00
 2  2  2    -4.8565657501e-01
 2  2  3     0.0000000000e+00
 2  3  1     0.0000000000e+00
 2  3  2     0.0000000000e+00
 2  3  3     8.5042237521e-02
 3  1  1     0.0000000000e+00
 3  1  2     0.0000000000e+00
 3  1  3    -1.4729747618e-01
 3  2  1     0.0000000000e+00
 3  2  2     0.0000000000e+00
 3  2  3     8.5042237521e-02
 3  3  1     2.4422574990e-01
 3  3  2    -1.4100380245e-01
 3  3  3     0.0000000000e+00

    7
0.0000000000e+00 0.0000000000e+00 0.0000000000e+00
-1.2197534712e+00 2.1126749848e+00 0.0000000000e+00
     1      1      1
 1  1  1    -3.9030696253e+00
 1  1  2    -2.4056458040e+00
 1  1  3     0.0000000000e+00
 1  2  1    -4.8376271891e-01
 1  2  2     3.9980124995e+00
 1  2  3     0.0000000000e+00
 1  3  1     0.0000000000e+00
 1  3  2     0.0000000000e+00
 1  3  3    -1.8377990192e+00
 2  1  1    -4.8376271891e-01
 2  1  2     3.9980124995e+00
 2  1  3     0.0000000000e+00
 2  2  1     8.0160087292e+00
 2  2  2    -7.0107567514e+00
 2  2  3     0.0000000000e+00
 2  3  1     0.0000000000e+00
 2  3  2     0.0000000000e+00
 2  3  3     1.5299692267e+00
 3  1  1     0.0000000000e+00
 3  1  2     0.0000000000e+00
 3  1  3    -1.8377990192e+00
 3  2  1     0.0000000000e+00
 3  2  2     0.0000000000e+00
 3  2  3     1.5299692267e+00
 3  3  1    -3.2690520366e-01
 3  3  2    -7.2960525995e-01
 3  3  3     0.0000000000e+00

    8
0.0000000000e+00 0.0000000000e+00 0.0000000000e+00
-1.2197534712e+00 2.1126749848e+00 0.0000000000e+00
     1      1      2
 1  1  1    -1.6821443090e+00
 1  1  2    -5.2365476165e-01
 1  1  3     0.0000000000e+00
 1  2  1    -1.4730973462e-01
 1  2  2     8.4652604975e-01
 1  2  3     0.0000000000e+00
 1  3  1     0.0000000000e+00
 1  3  2     0.0000000000e+00
 1  3  3    -1.7036691702e-01
 2  1  1    -1.4730973462e-01
 2  1  2     8.4652604975e-01
 2  1  3     0.0000000000e+00
 2  2  1    -4.4184131242e-01
 2  2  2     1.4112921300e+00
 2  2  3     0.0000000000e+00
 2  3  1     0.0000000000e+00
 2  3  2     0.0000000000e+00
 2  3  3    -1.6815916354e-01
 3  1  1     0.0000000000e+00
 3  1  2     0.0000000000e+00
 3  1  3    -1.7036691702e-01
 3  2  1     0.0000000000e+00
 3  2  2     0.0000000000e+00
 3  2  3    -1.6815916354e-01
 3  3  1     5.4426676956e-02
 3  3  2    -5.4211524815e-02
 3  3  3     0.0000000000e+00

    9
0.0000000000e+00 0.0000000000e+00 0.0000000000e+00
1.2197534712e+00 2.1126749848e+00 0.0000000000e+00
     1      1      1
 1  1  1     3.9030696253e+00
 1  1  2    -2.4056458040e+00
 1  1  3     0.0000000000e+00
 1  2  1    -4.8376271891e-01
 1  2  2    -3.9980124995e+00
 1  2  3     0.0000000000e+00
 1  3  1     0.0000000000e+00
 1  3  2     0.0000000000e+00
 1  3  3     1.8377990192e+00
 2  1  1    -4.8376271891e-01
 2  1  2    -3.9980124995e+00
 2  1  3     0.0000000000e+00
 2  2  1    -8.0160087292e+00
 2  2  2    -7.0107567514e+00
 2  2  3     0.0000000000e+00
 2  3  1     0.0000000000e+00
 2  3  2     0.0000000000e+00
 2  3  3     1.5299692267e+00
 3  1  1     0.0000000000e+00
 3  1  2     0.0000000000e+00
 3  1  3     1.8377990192e+00
 3  2  1     0.0000000000e+00
 3  2  2     0.0000000000e+00
 3  2  3     1.5299692267e+00
 3  3  1     3.2690520366e-01
 3  3  2    -7.2960525995e-01
 3  3  3     0.0000000000e+00

   10
0.0000000000e+00 0.0000000000e+00 0.0000000000e+00
1.2197534712e+00 2.1126749848e+00 0.0000000000e+00
     1      1      2
 1  1  1     1.6821443090e+00
 1  1  2    -5.2365476165e-01
 1  1  3     0.0000000000e+00
 1  2  1    -1.4730973462e-01
 1  2  2    -8.4652604975e-01
 1  2  3     0.0000000000e+00
 1  3  1     0.0000000000e+00
 1  3  2     0.0000000000e+00
 1  3  3     1.7036691702e-01
 2  1  1    -1.4730973462e-01
 2  1  2    -8.4652604975e-01
 2  1  3     0.0000000000e+00
 2  2  1     4.4184131242e-01
 2  2  2     1.4112921300e+00
 2  2  3     0.0000000000e+00
 2  3  1     0.0000000000e+00
 2  3  2     0.0000000000e+00
 2  3  3    -1.6815916354e-01
 3  1  1     0.0000000000e+00
 3  1  2     0.0000000000e+00
 3  1  3     1.7036691702e-01
 3  2  1     0.0000000000e+00
 3  2  2     0.0000000000e+00
 3  2  3    -1.6815916354e-01
 3  3  1    -5.4426676956e-02
 3  3  2    -5.4211524815e-02
 3  3  3     0.0000000000e+00

   11
0.0000000000e+00 0.0000000000e+00 0.0000000000e+00
3.6592604135e+00 2.1126749848e+00 0.0000000000e+00
     1      1      1
 1  1  1     3.1943054437e+00
 1  1  2     3.1073889686e-02
 1  1  3     0.0000000000e+00
 1  2  1    -2.0533479326e+00
 1  2  2    -1.3867301896e-01
 1  2  3     0.0000000000e+00
 1  3  1     0.0000000000e+00
 1  3  2     0.0000000000e+00
 1  3  3    -7.5200278629e-02
 2  1  1    -2.0533479326e+00
 2  1  2    -1.3867301896e-01
 2  1  3     0.0000000000e+00
 2  2  1     3.4716514817e+00
 2  2  2     3.8175181356e+00
 2  2  3     0.0000000000e+00
 2  3  1     0.0000000000e+00
 2  3  2     0.0000000000e+00
 2  3  3    -4.3416901109e-02
 3  1  1     0.0000000000e+00
 3  1  2     0.0000000000e+00
 3  1  3    -7.5200278629e-02
 3  2  1     0.0000000000e+00
 3  2  2     0.0000000000e+00
 3  2  3    -4.3416901109e-02
 3  3  1     1.1201014190e-01
 3  3  2     6.4669085575e-02
 3  3  3     0.0000000000e+00

   12
0.0000000000e+00 0.0000000000e+00 0.0000000000e+00
-3.6592604135e+00 2.1126749848e+00 0.0000000000e+00
     1      1      1
 1  1  1    -3.1943054437e+00
 1  1  2     3.1073889686e-02
 1  1  3     0.0000000000e+00
 1  2  1    -2.0533479326e+00
 1  2  2     1.3867301896e-01
 1  2  3     0.0000000000e+00
 1  3  1     0.0000000000e+00
 1  3  2     0.0000000000e+00
 1  3  3     7.5200278629e-02
 2  1  1    -2.0533479326e+00
 2  1  2     1.3867301896e-01
 2  1  3     0.0000000000e+00
 2  2  1    -3.4716514817e+00
 2  2  2     3.8175181356e+00
 2  2  3     0.0000000000e+00
 2  3  1     0.0000000000e+00
 2  3  2     0.0000000000e+00
 2  3  3    -4.3416901109e-02
 3  1  1     0.0000000000e+00
 3  1  2     0.0000000000e+00
 3  1  3     7.5200278629e-02
 3  2  1     0.0000000000e+00
 3  2  2     0.0000000000e+00
 3  2  3    -4.3416901109e-02
 3  3  1    -1.1201014190e-01
 3  3  2     6.4669085575e-02
 3  3  3     0.0000000000e+00

   13
0.0000000000e+00 0.0000000000e+00 0.0000000000e+00
0.0000000000e+00 4.2253499696e+00 0.0000000000e+00
     1      1      1
 1  1  1     0.0000000000e+00
 1  1  2     1.7750626866e+00
 1  1  3     0.0000000000e+00
 1  2  1    -1.2589885150e+00
 1  2  2     0.0000000000e+00
 1  2  3     0.0000000000e+00
 1  3  1     0.0000000000e+00
 1  3  2     0.0000000000e+00
 1  3  3     0.0000000000e+00
 2  1  1    -1.2589885150e+00
 2  1  2     0.0000000000e+00
 2  1  3     0.0000000000e+00
 2  2  1     0.0000000000e+00
 2  2  2     3.8635392978e+00
 2  2  3     0.0000000000e+00
 2  3  1     0.0000000000e+00
 2  3  2     0.0000000000e+00
 2  3  3     3.8283102409e-02
 3  1  1     0.0000000000e+00
 3  1  2     0.0000000000e+00
 3  1  3     0.0000000000e+00
 3  2  1     0.0000000000e+00
 3  2  2     0.0000000000e+00
 3  2  3     3.8283102409e-02
 3  3  1     0.0000000000e+00
 3  3  2    -1.2372691064e-01
 3  3  3     0.0000000000e+00

   14
0.0000000000e+00 0.0000000000e+00 0.0000000000e+00
2.4395069423e+00 -4.2253499696e+00 0.0000000000e+00
     1      1      2
 1  1  1     9.9843556630e-01
 1  1  2    -1.5919958134e+00
 1  1  3     0.0000000000e+00
 1  2  1    -6.6440946185e-01
 1  2  2    -3.2160383155e-01
 1  2  3     0.0000000000e+00
 1  3  1     0.0000000000e+00
 1  3  2     0.0000000000e+00
 1  3  3    -2.3081356602e-01
 2  1  1    -6.6440946185e-01
 2  1  2    -3.2160383155e-01
 2  1  3     0.0000000000e+00
 2  2  1    -1.2917118666e+00
 2  2  2    -6.9124837618e-01
 2  2  3     0.0000000000e+00
 2  3  1     0.0000000000e+00
 2  3  2     0.0000000000e+00
 2  3  3    -6.3462496334e-02
 3  1  1     0.0000000000e+00
 3  1  2     0.0000000000e+00
 3  1  3    -2.3081356602e-01
 3  2  1     0.0000000000e+00
 3  2  2     0.0000000000e+00
 3  2  3    -6.3462496334e-02
 3  3  1    -1.9735219190e-02
 3  3  2     7.4240647295e-02
 3  3  3     0.0000000000e+00

   15
0.0000000000e+00 0.0000000000e+00 0.0000000000e+00
-2.4395069423e+00 -4.2253499696e+00 0.0000000000e+00
     1      1      2
 1  1  1    -9.9843556630e-01
 1  1  2    -1.5919958134e+00
 1  1  3     0.0000000000e+00
 1  2  1    -6.6440946185e-01
 1  2  2     3.2160383155e-01
 1  2  3     0.0000000000e+00
 1  3  1     0.0000000000e+00
 1  3  2     0.0000000000e+00
 1  3  3     2.3081356602e-01
 2  1  1    -6.6440946185e-01
 2  1  2     3.2160383155e-01
 2  1  3     0.0000000000e+00
 2  2  1     1.2917118666e+00
 2  2  2    -6.9124837618e-01
 2  2  3     0.0000000000e+00
 2  3  1     0.0000000000e+00
 2  3  2     0.0000000000e+00
 2  3  3    -6.3462496334e-02
 3  1  1     0.0000000000e+00
 3  1  2     0.0000000000e+00
 3  1  3     2.3081356602e-01
 3  2  1     0.0000000000e+00
 3  2  2     0.0000000000e+00
 3  2  3    -6.3462496334e-02
 3  3  1     1.9735219190e-02
 3  3  2     7.4240647295e-02
 3  3  3     0.0000000000e+00

   16
0.0000000000e+00 0.0000000000e+00 0.0000000000e+00
0.0000000000e+00 -4.2253499696e+00 0.0000000000e+00
     1      1      1
 1  1  1     0.0000000000e+00
 1  1  2    -5.9820028627e+00
 1  1  3     0.0000000000e+00
 1  2  1    -1.8131592181e+00
 1  2  2     0.0000000000e+00
 1  2  3     0.0000000000e+00
 1  3  1     0.0000000000e+00
 1  3  2     0.0000000000e+00
 1  3  3     0.0000000000e+00
 2  1  1    -1.8131592181e+00
 2  1  2     0.0000000000e+00
 2  1  3     0.0000000000e+00
 2  2  1     0.0000000000e+00
 2  2  2    -1.7151811879e+00
 2  2  3     0.0000000000e+00
 2  3  1     0.0000000000e+00
 2  3  2     0.0000000000e+00
 2  3  3     8.6833802219e-02
 3  1  1     0.0000000000e+00
 3  1  2     0.0000000000e+00
 3  1  3     0.0000000000e+00
 3  2  1     0.0000000000e+00
 3  2  2     0.0000000000e+00
 3  2  3     8.6833802219e-02
 3  3  1     0.0000000000e+00
 3  3  2    -1.2933817115e-01
 3  3  3     0.0000000000e+00

   17
0.0000000000e+00 0.0000000000e+00 0.0000000000e+00
0.0000000000e+00 -4.2253499696e+00 0.0000000000e+00
     1      1      2
 1  1  1     0.0000000000e+00
 1  1  2    -1.3757866271e+00
 1  1  3     0.0000000000e+00
 1  2  1    -6.6687446845e-01
 1  2  2     0.0000000000e+00
 1  2  3     0.0000000000e+00
 1  3  1     0.0000000000e+00
 1  3  2     0.0000000000e+00
 1  3  3     0.0000000000e+00
 2  1  1    -6.6687446845e-01
 2  1  2     0.0000000000e+00
 2  1  3     0.0000000000e+00
 2  2  1     0.0000000000e+00
 2  2  2     1.2013859292e+01
 2  2  3     0.0000000000e+00
 2  3  1     0.0000000000e+00
 2  3  2     0.0000000000e+00
 2  3  3    -1.7008447504e-01
 3  1  1     0.0000000000e+00
 3  1  2     0.0000000000e+00
 3  1  3     0.0000000000e+00
 3  2  1     0.0000000000e+00
 3  2  2     0.0000000000e+00
 3  2  3    -1.7008447504e-01
 3  3  1     0.0000000000e+00
 3  3  2     2.8200760490e-01
 3  3  3     0.0000000000e+00

   18
0.0000000000e+00 0.0000000000e+00 0.0000000000e+00
1.2197534712e+00 -2.1126749848e+00 0.0000000000e+00
     1      1      1
 1  1  1     2.3269586334e-01
 1  1  2     5.1972383088e+00
 1  1  3     0.0000000000e+00
 1  2  1     7.5660995900e-01
 1  2  2    -6.6756686767e+00
 1  2  3     0.0000000000e+00
 1  3  1     0.0000000000e+00
 1  3  2     0.0000000000e+00
 1  3  3     4.0609270778e-01
 2  1  1     7.5660995900e-01
 2  1  2    -6.6756686767e+00
 2  1  3     0.0000000000e+00
 2  2  1    -6.3310701367e+00
 2  2  2     3.0728727172e+00
 2  2  3     0.0000000000e+00
 2  3  1     0.0000000000e+00
 2  3  2     0.0000000000e+00
 2  3  3    -2.3565652510e+00
 3  1  1     0.0000000000e+00
 3  1  2     0.0000000000e+00
 3  1  3     4.0609270778e-01
 3  2  1     0.0000000000e+00
 3  2  2     0.0000000000e+00
 3  2  3    -2.3565652510e+00
 3  3  1    -7.9530929168e-01
 3  3  2     8.1694418976e-02
 3  3  3     0.0000000000e+00

   19
0.0000000000e+00 0.0000000000e+00 0.0000000000e+00
1.2197534712e+00 -2.1126749848e+00 0.0000000000e+00
     1      1      2
 1  1  1    -1.4017718734e+02
 1  1  2     8.6971064317e+01
 1  1  3     0.0000000000e+00
 1  2  1     8.7891402808e+01
 1  2  2    -4.7257086788e+01
 1  2  3     0.0000000000e+00
 1  3  1     0.0000000000e+00
 1  3  2     0.0000000000e+00
 1  3  3     1.3674889887e+01
 2  1  1     8.7891402808e+01
 2  1  2    -4.7257086788e+01
 2  1  3     0.0000000000e+00
 2  2  1    -4.5663013762e+01
 2  2  2     2.0323825814e+01
 2  2  3     0.0000000000e+00
 2  3  1     0.0000000000e+00
 2  3  2     0.0000000000e+00
 2  3  3    -7.8952013571e+00
 3  1  1     0.0000000000e+00
 3  1  2     0.0000000000e+00
 3  1  3     1.3674889887e+01
 3  2  1     0.0000000000e+00
 3  2  2     0.0000000000e+00
 3  2  3    -7.8952013571e+00
 3  3  1     1.2124089710e+01
 3  3  2    -6.9998464579e+00
 3  3  3     0.0000000000e+00

   20
0.0000000000e+00 0.0000000000e+00 0.0000000000e+00
3.6592604135e+00 -2.1126749848e+00 0.0000000000e+00
     1      1      1
 1  1  1     2.3485967117e+00
 1  1  2    -2.6149514588e+00
 1  1  3     0.0000000000e+00
 1  2  1    -1.0979258579e+00
 1  2  2    -9.2989568425e-02
 1  2  3     0.0000000000e+00
 1  3  1     0.0000000000e+00
 1  3  2     0.0000000000e+00
 1  3  3     3.3154139222e-02
 2  1  1    -1.0979258579e+00
 2  1  2    -9.2989568425e-02
 2  1  3     0.0000000000e+00
 2  2  1     2.5345758486e+00
 2  2  2    -2.0434953343e-01
 2  2  3     0.0000000000e+00
 2  3  1     0.0000000000e+00
 2  3  2     0.0000000000e+00
 2  3  3    -1.9141551204e-02
 3  1  1     0.0000000000e+00
 3  1  2     0.0000000000e+00
 3  1  3     3.3154139222e-02
 3  2  1     0.0000000000e+00
 3  2  2     0.0000000000e+00
 3  2  3    -1.9141551204e-02
 3  3  1    -1.0715064774e-01
 3  3  2     6.1863455318e-02
 3  3  3     0.0000000000e+00

   21
0.0000000000e+00 0.0000000000e+00 0.0000000000e+00
3.6592604135e+00 -2.1126749848e+00 0.0000000000e+00
     1      1      2
 1  1  1     4.8056355324e-01
 1  1  2     4.4347580435e-01
 1  1  3     0.0000000000e+00
 1  2  1    -8.6045557421e-01
 1  2  2     1.0318864407e+00
 1  2  3     0.0000000000e+00
 1  3  1     0.0000000000e+00
 1  3  2     0.0000000000e+00
 1  3  3    -6.0446648996e-02
 2  1  1    -8.6045557421e-01
 2  1  2     1.0318864407e+00
 2  1  3     0.0000000000e+00
 2  2  1     1.3501457678e+00
 2  2  2     9.5213101684e-01
 2  2  3     0.0000000000e+00
 2  3  1     0.0000000000e+00
 2  3  2     0.0000000000e+00
 2  3  3     2.3162165988e-01
 3  1  1     0.0000000000e+00
 3  1  2     0.0000000000e+00
 3  1  3    -6.0446648996e-02
 3  2  1     0.0000000000e+00
 3  2  2     0.0000000000e+00
 3  2  3     2.3162165988e-01
 3  3  1    -7.4161896146e-02
 3  3  2    -2.0029122480e-02
 3  3  3     0.0000000000e+00

   22
0.0000000000e+00 0.0000000000e+00 0.0000000000e+00
-3.6592604135e+00 -2.1126749848e+00 0.0000000000e+00
     1      1      1
 1  1  1    -2.3485967117e+00
 1  1  2    -2.6149514588e+00
 1  1  3     0.0000000000e+00
 1  2  1    -1.0979258579e+00
 1  2  2     9.2989568425e-02
 1  2  3     0.0000000000e+00
 1  3  1     0.0000000000e+00
 1  3  2     0.0000000000e+00
 1  3  3    -3.3154139222e-02
 2  1  1    -1.0979258579e+00
 2  1  2     9.2989568425e-02
 2  1  3     0.0000000000e+00
 2  2  1    -2.5345758486e+00
 2  2  2    -2.0434953343e-01
 2  2  3     0.0000000000e+00
 2  3  1     0.0000000000e+00
 2  3  2     0.0000000000e+00
 2  3  3    -1.9141551204e-02
 3  1  1     0.0000000000e+00
 3  1  2     0.0000000000e+00
 3  1  3    -3.3154139222e-02
 3  2  1     0.0000000000e+00
 3  2  2     0.0000000000e+00
 3  2  3    -1.9141551204e-02
 3  3  1     1.0715064774e-01
 3  3  2     6.1863455318e-02
 3  3  3     0.0000000000e+00

   23
0.0000000000e+00 0.0000000000e+00 0.0000000000e+00
-3.6592604135e+00 -2.1126749848e+00 0.0000000000e+00
     1      1      2
 1  1  1    -4.8056355324e-01
 1  1  2     4.4347580435e-01
 1  1  3     0.0000000000e+00
 1  2  1    -8.6045557421e-01
 1  2  2    -1.0318864407e+00
 1  2  3     0.0000000000e+00
 1  3  1     0.0000000000e+00
 1  3  2     0.0000000000e+00
 1  3  3     6.0446648996e-02
 2  1  1    -8.6045557421e-01
 2  1  2    -1.0318864407e+00
 2  1  3     0.0000000000e+00
 2  2  1    -1.3501457678e+00
 2  2  2     9.5213101684e-01
 2  2  3     0.0000000000e+00
 2  3  1     0.0000000000e+00
 2  3  2     0.0000000000e+00
 2  3  3     2.3162165988e-01
 3  1  1     0.0000000000e+00
 3  1  2     0.0000000000e+00
 3  1  3     6.0446648996e-02
 3  2  1     0.0000000000e+00
 3  2  2     0.0000000000e+00
 3  2  3     2.3162165988e-01
 3  3  1     7.4161896146e-02
 3  3  2    -2.0029122480e-02
 3  3  3     0.0000000000e+00

   24
0.0000000000e+00 0.0000000000e+00 0.0000000000e+00
-1.2197534712e+00 -2.1126749848e+00 0.0000000000e+00
     1      1      1
 1  1  1    -2.3269586334e-01
 1  1  2     5.1972383088e+00
 1  1  3     0.0000000000e+00
 1  2  1     7.5660995900e-01
 1  2  2     6.6756686767e+00
 1  2  3     0.0000000000e+00
 1  3  1     0.0000000000e+00
 1  3  2     0.0000000000e+00
 1  3  3    -4.0609270778e-01
 2  1  1     7.5660995900e-01
 2  1  2     6.6756686767e+00
 2  1  3     0.0000000000e+00
 2  2  1     6.3310701367e+00
 2  2  2     3.0728727172e+00
 2  2  3     0.0000000000e+00
 2  3  1     0.0000000000e+00
 2  3  2     0.0000000000e+00
 2  3  3    -2.3565652510e+00
 3  1  1     0.0000000000e+00
 3  1  2     0.0000000000e+00
 3  1  3    -4.0609270778e-01
 3  2  1     0.0000000000e+00
 3  2  2     0.0000000000e+00
 3  2  3    -2.3565652510e+00
 3  3  1     7.9530929168e-01
 3  3  2     8.1694418976e-02
 3  3  3     0.0000000000e+00

   25
0.0000000000e+00 0.0000000000e+00 0.0000000000e+00
-1.2197534712e+00 -2.1126749848e+00 0.0000000000e+00
     1      1      2
 1  1  1     1.4017718734e+02
 1  1  2     8.6971064317e+01
 1  1  3     0.0000000000e+00
 1  2  1     8.7891402808e+01
 1  2  2     4.7257086788e+01
 1  2  3     0.0000000000e+00
 1  3  1     0.0000000000e+00
 1  3  2     0.0000000000e+00
 1  3  3    -1.3674889887e+01
 2  1  1     8.7891402808e+01
 2  1  2     4.7257086788e+01
 2  1  3     0.0000000000e+00
 2  2  1     4.5663013762e+01
 2  2  2     2.0323825814e+01
 2  2  3     0.0000000000e+00
 2  3  1     0.0000000000e+00
 2  3  2     0.0000000000e+00
 2  3  3    -7.8952013571e+00
 3  1  1     0.0000000000e+00
 3  1  2     0.0000000000e+00
 3  1  3    -1.3674889887e+01
 3  2  1     0.0000000000e+00
 3  2  2     0.0000000000e+00
 3  2  3    -7.8952013571e+00
 3  3  1    -1.2124089710e+01
 3  3  2    -6.9998464579e+00
 3  3  3     0.0000000000e+00

   26
0.0000000000e+00 0.0000000000e+00 0.0000000000e+00
0.0000000000e+00 0.0000000000e+00 0.0000000000e+00
     1      2      1
 1  1  1     0.0000000000e+00
 1  1  2     6.0397274733e+00
 1  1  3     0.0000000000e+00
 1  2  1     7.8804044552e+00
 1  2  2     0.0000000000e+00
 1  2  3     0.0000000000e+00
 1  3  1     0.0000000000e+00
 1  3  2     0.0000000000e+00
 1  3  3     0.0000000000e+00
 2  1  1     6.0397274733e+00
 2  1  2     0.0000000000e+00
 2  1  3     0.0000000000e+00
 2  2  1     0.0000000000e+00
 2  2  2    -2.2247018472e+02
 2  2  3     0.0000000000e+00
 2  3  1     0.0000000000e+00
 2  3  2     0.0000000000e+00
 2  3  3     1.5790402714e+01
 3  1  1     0.0000000000e+00
 3  1  2     0.0000000000e+00
 3  1  3     0.0000000000e+00
 3  2  1     0.0000000000e+00
 3  2  2     0.0000000000e+00
 3  2  3     1.3999692916e+01
 3  3  1     0.0000000000e+00
 3  3  2     1.5790402714e+01
 3  3  3     0.0000000000e+00

   27
0.0000000000e+00 0.0000000000e+00 0.0000000000e+00
0.0000000000e+00 0.0000000000e+00 0.0000000000e+00
     1      2      2
 1  1  1     0.0000000000e+00
 1  1  2    -6.0397274733e+00
 1  1  3     0.0000000000e+00
 1  2  1    -6.0397274733e+00
 1  2  2     0.0000000000e+00
 1  2  3     0.0000000000e+00
 1  3  1     0.0000000000e+00
 1  3  2     0.0000000000e+00
 1  3  3     0.0000000000e+00
 2  1  1    -7.8804044552e+00
 2  1  2     0.0000000000e+00
 2  1  3     0.0000000000e+00
 2  2  1     0.0000000000e+00
 2  2  2     2.2247018472e+02
 2  2  3     0.0000000000e+00
 2  3  1     0.0000000000e+00
 2  3  2     0.0000000000e+00
 2  3  3    -1.3999692916e+01
 3  1  1     0.0000000000e+00
 3  1  2     0.0000000000e+00
 3  1  3     0.0000000000e+00
 3  2  1     0.0000000000e+00
 3  2  2     0.0000000000e+00
 3  2  3    -1.5790402714e+01
 3  3  1     0.0000000000e+00
 3  3  2    -1.5790402714e+01
 3  3  3     0.0000000000e+00

   28
0.0000000000e+00 0.0000000000e+00 0.0000000000e+00
2.4395069423e+00 0.0000000000e+00 0.0000000000e+00
     1      2      1
 1  1  1     2.7382249737e+00
 1  1  2    -1.4380808729e-01
 1  1  3     0.0000000000e+00
 1  2  1    -3.5097417235e+00
 1  2  2    -1.6428128078e+00
 1  2  3     0.0000000000e+00
 1  3  1     0.0000000000e+00
 1  3  2     0.0000000000e+00
 1  3  3    -9.0163080551e-01
 2  1  1     9.8518947680e-01
 2  1  2     2.0040510171e+00
 2  1  3     0.0000000000e+00
 2  2  1    -5.1538829843e-01
 2  2  2    -4.5500312733e+00
 2  2  3     0.0000000000e+00
 2  3  1     0.0000000000e+00
 2  3  2     0.0000000000e+00
 2  3  3     8.8455117504e-02
 3  1  1     0.0000000000e+00
 3  1  2     0.0000000000e+00
 3  1  3     9.5592451578e-02
 3  2  1     0.0000000000e+00
 3  2  2     0.0000000000e+00
 3  2  3    -4.2639940696e-01
 3  3  1     6.2511467782e-01
 3  3  2     5.7954890059e-01
 3  3  3     0.0000000000e+00

   29
0.0000000000e+00 0.0000000000e+00 0.0000000000e+00
2.4395069423e+00 0.0000000000e+00 0.0000000000e+00
     1      2      2
 1  1  1     2.7382249737e+00
 1  1  2     1.4380808729e-01
 1  1  3     0.0000000000e+00
 1  2  1    -9.8518947680e-01
 1  2  2     2.0040510171e+00
 1  2  3     0.0000000000e+00
 1  3  1     0.0000000000e+00
 1  3  2     0.0000000000e+00
 1  3  3     9.5592451578e-02
 2  1  1     3.5097417235e+00
 2  1  2    -1.6428128078e+00
 2  1  3     0.0000000000e+00
 2  2  1    -5.1538829843e-01
 2  2  2     4.5500312733e+00
 2  2  3     0.0000000000e+00
 2  3  1     0.0000000000e+00
 2  3  2     0.0000000000e+00
 2  3  3     4.2639940696e-01
 3  1  1     0.0000000000e+00
 3  1  2     0.0000000000e+00
 3  1  3    -9.0163080551e-01
 3  2  1     0.0000000000e+00
 3  2  2     0.0000000000e+00
 3  2  3    -8.8455117504e-02
 3  3  1     6.2511467782e-01
 3  3  2    -5.7954890059e-01
 3  3  3     0.0000000000e+00

   30
0.0000000000e+00 0.0000000000e+00 0.0000000000e+00
-2.4395069423e+00 0.0000000000e+00 0.0000000000e+00
     1      2      1
 1  1  1    -2.7382249737e+00
 1  1  2    -1.4380808729e-01
 1  1  3     0.0000000000e+00
 1  2  1    -3.5097417235e+00
 1  2  2     1.6428128078e+00
 1  2  3     0.0000000000e+00
 1  3  1     0.0000000000e+00
 1  3  2     0.0000000000e+00
 1  3  3     9.0163080551e-01
 2  1  1     9.8518947680e-01
 2  1  2    -2.0040510171e+00
 2  1  3     0.0000000000e+00
 2  2  1     5.1538829843e-01
 2  2  2    -4.5500312733e+00
 2  2  3     0.0000000000e+00
 2  3  1     0.0000000000e+00
 2  3  2     0.0000000000e+00
 2  3  3     8.8455117504e-02
 3  1  1     0.0000000000e+00
 3  1  2     0.0000000000e+00
 3  1  3    -9.5592451578e-02
 3  2  1     0.0000000000e+00
 3  2  2     0.0000000000e+00
 3  2  3    -4.2639940696e-01
 3  3  1    -6.2511467782e-01
 3  3  2     5.7954890059e-01
 3  3  3     0.0000000000e+00

   31
0.0000000000e+00 0.0000000000e+00 0.0000000000e+00
-2.4395069423e+00 0.0000000000e+00 0.0000000000e+00
     1      2      2
 1  1  1    -2.7382249737e+00
 1  1  2     1.4380808729e-01
 1  1  3     0.0000000000e+00
 1  2  1    -9.8518947680e-01
 1  2  2    -2.0040510171e+00
 1  2  3     0.0000000000e+00
 1  3  1     0.0000000000e+00
 1  3  2     0.0000000000e+00
 1  3  3    -9.5592451578e-02
 2  1  1     3.5097417235e+00
 2  1  2     1.6428128078e+00
 2  1  3     0.0000000000e+00
 2  2  1     5.1538829843e-01
 2  2  2     4.5500312733e+00
 2  2  3     0.0000000000e+00
 2  3  1     0.0000000000e+00
 2  3  2     0.0000000000e+00
 2  3  3     4.2639940696e-01
 3  1  1     0.0000000000e+00
 3  1  2     0.0000000000e+00
 3  1  3     9.0163080551e-01
 3  2  1     0.0000000000e+00
 3  2  2     0.0000000000e+00
 3  2  3    -8.8455117504e-02
 3  3  1    -6.2511467782e-01
 3  3  2    -5.7954890059e-01
 3  3  3     0.0000000000e+00

   32
0.0000000000e+00 0.0000000000e+00 0.0000000000e+00
-1.2197534712e+00 2.1126749848e+00 0.0000000000e+00
     1      2      1
 1  1  1    -1.7056938346e+00
 1  1  2    -5.6489024632e-01
 1  1  3     0.0000000000e+00
 1  2  1    -4.2752813845e+00
 1  2  2     1.5736307109e+00
 1  2  3     0.0000000000e+00
 1  3  1     0.0000000000e+00
 1  3  2     0.0000000000e+00
 1  3  3     1.8315629410e+00
 2  1  1    -7.3262579991e+00
 2  1  2    -9.4927776415e-01
 2  1  3     0.0000000000e+00
 2  2  1    -2.3300467813e+00
 2  2  2     2.7424328172e+00
 2  2  3     0.0000000000e+00
 2  3  1     0.0000000000e+00
 2  3  2     0.0000000000e+00
 2  3  3    -5.8681902218e-01
 3  1  1     0.0000000000e+00
 3  1  2     0.0000000000e+00
 3  1  3    -1.1982487780e-01
 3  2  1     0.0000000000e+00
 3  2  2     0.0000000000e+00